LAMMPS (23 Jun 2022)
units		metal
atom_style	full
atom_modify    sort 0 0.0
box tilt large
 read_data tegt.data
Reading data file ...
  orthogonal box = (0 0 0) to (21.321545 12.31 37)
  1 by 1 by 1 MPI processor grid
  reading atoms ...
  200 atoms
Finding 1-2 1-3 1-4 neighbors ...
  special bond factors lj:    0        0        0       
  special bond factors coul:  0        0        0       
     0 = max # of 1-2 neighbors
     0 = max # of 1-3 neighbors
     0 = max # of 1-4 neighbors
     1 = max # of special neighbors
  special bonds CPU = 0.000 seconds
  read_data CPU = 0.001 seconds
group top type 1
100 atoms in group top
group bottom type 2
100 atoms in group bottom
mass 1 12.0100
mass 2 12.0100
velocity	all create 0.0 87287 loop geom
pair_style rebo
pair_coeff * * CH_pz.rebo C C
Reading rebo potential file CH_pz.rebo with DATE: 2018-7-3
timestep 0.00025
thermo 1
fix 1 all nve
info system
info system
info system
info system
info system
info system
info system
info system
info system
info system
info system
info system
info system
info system
info system
info system
info system
info system
info system
info system
info system
info system
info system
info system
info system
info system
info system
info system
info system
info system
info system
info system
info system
info system
info system
info system
info system
info system
info system
info system
info system
info system
info system
info system
info system
info system
info system
info system
info system
info system
info system
info system
info system
info system
info system
info system
info system
info system
info system
info system
info system
info system
info system
info system
info system
info system
info system
info system
info system
info system
info system
info system
info system
info system
info system
info system
info system
info system
info system
info system
info system
info system
info system
info system
info system
info system
info system
info system
info system
info system
info system
info system
info system
info system
info system
info system
info system
info system
info system
info system
info system
info system
info system
info system
info system
info system
info system
info system
info system
info system
info system
info system
info system
info system
info system
info system
info system
info system
info system
info system
info system
info system
info system
info system
info system
info system
info system
info system
info system
info system
info system
info system
info system
info system
info system
info system
info system
info system
info system
info system
info system
info system
info system
info system
info system
info system
info system
info system
info system
info system
info system
info system
info system
info system
info system
info system
info system
info system
info system
info system
info system
info system
info system
info system
info system
info system
info system
info system
info system
info system
info system
info system
info system
info system
info system
info system
info system
info system
info system
info system
info system
info system
info system
info system
info system
info system
info system
info system
info system
info system
info system
info system
info system
info system
info system
info system
info system
info system
info system
info system
info system
info system
info system
info system
info system
info system
info system
info system
info system
info system
info system
info system
info system
info system
info system
info system
info system
info system
info system
info system
info system
info system
info system
info system
info system
info system
info system
info system
info system
info system
info system
info system
info system
info system
info system
info system
info system
info system
info system
info system
info system
info system
info system
info system
info system
info system
info system
info system
info system
info system
info system
info system
info system
info system
info system
info system
info system
info system
info system
info system
info system
info system
info system
info system
info system
info system
info system
info system
info system
info system
info system
info system
info system
info system
info system
info system
info system
info system
info system
info system
info system
info system
info system
info system
info system
info system
info system
info system
info system
info system
info system
info system
info system
info system
info system
info system
info system
info system
info system
info system
info system
info system
info system
info system
info system
info system
info system
info system
info system
info system
info system
info system
info system
info system
info system
info system
info system
info system
info system
info system
info system
info system
info system
info system
info system
info system
info system
info system
info system
info system
info system
info system
info system
info system
info system
info system
info system
info system
info system
info system
info system
info system
info system
info system
info system
info system
info system
info system
info system
info system
info system
info system
info system
info system
info system
info system
info system
info system
info system
info system
info system
info system
info system
info system
info system
info system
info system
info system
info system
info system
info system
info system
info system
info system
info system
info system
info system
info system
info system
info system
info system
info system
info system
info system
info system
info system
info system
info system
info system
info system
info system
info system
info system
info system
info system
info system
info system
info system
info system
info system
run 0
Neighbor list info ...
  update every 1 steps, delay 10 steps, check yes
  max neighbors/atom: 2000, page size: 100000
  master list distance cutoff = 8
  ghost atom cutoff = 8
  binsize = 4, bins = 6 4 10
  1 neighbor lists, perpetual/occasional/extra = 1 0 0
  (1) pair rebo, perpetual
      attributes: full, newton on, ghost
      pair build: full/bin/ghost
      stencil: full/ghost/bin/3d
      bin: standard
Per MPI rank memory allocation (min/avg/max) = 6.734 | 6.734 | 6.734 Mbytes
   Step          Temp          E_pair         E_mol          TotEng         Press     
         0   0              15.214711      0              15.214711      74940.971    
Loop time of 7.815e-06 on 1 procs for 0 steps with 200 atoms

12412.0% CPU use with 1 MPI tasks x no OpenMP threads

MPI task timing breakdown:
Section |  min time  |  avg time  |  max time  |%varavg| %total
---------------------------------------------------------------
Pair    | 0          | 0          | 0          |   0.0 |  0.00
Bond    | 0          | 0          | 0          |   0.0 |  0.00
Neigh   | 0          | 0          | 0          |   0.0 |  0.00
Comm    | 0          | 0          | 0          |   0.0 |  0.00
Output  | 0          | 0          | 0          |   0.0 |  0.00
Modify  | 0          | 0          | 0          |   0.0 |  0.00
Other   |            | 7.815e-06  |            |       |100.00

Nlocal:            200 ave         200 max         200 min
Histogram: 1 0 0 0 0 0 0 0 0 0
Nghost:            604 ave         604 max         604 min
Histogram: 1 0 0 0 0 0 0 0 0 0
Neighs:              0 ave           0 max           0 min
Histogram: 1 0 0 0 0 0 0 0 0 0
FullNghs:        19400 ave       19400 max       19400 min
Histogram: 1 0 0 0 0 0 0 0 0 0

Total # of neighbors = 19400
Ave neighs/atom = 97
Ave special neighs/atom = 0
Neighbor list builds = 0
Dangerous builds = 0
print "$(pe)"
15.214711044145840191
print "$(ke)"
0
info system
info system
info system
info system
info system
info system
info system
info system
info system
info system
info system
info system
info system
info system
info system
info system
info system
info system
info system
info system
info system
info system
info system
info system
info system
info system
info system
info system
info system
info system
info system
info system
info system
info system
info system
info system
info system
info system
info system
info system
info system
info system
info system
info system
info system
info system
info system
info system
info system
info system
info system
info system
info system
info system
info system
info system
info system
info system
info system
info system
info system
info system
info system
info system
info system
info system
info system
info system
info system
info system
info system
info system
info system
info system
info system
info system
info system
info system
info system
info system
info system
info system
info system
info system
info system
info system
info system
info system
info system
info system
info system
info system
info system
info system
info system
info system
info system
info system
info system
info system
info system
info system
info system
info system
info system
info system
info system
info system
info system
info system
info system
info system
info system
info system
info system
info system
info system
info system
info system
info system
info system
info system
info system
info system
info system
info system
info system
info system
info system
info system
info system
info system
info system
info system
info system
info system
info system
info system
info system
info system
info system
info system
info system
info system
info system
info system
info system
info system
info system
info system
info system
info system
info system
info system
info system
info system
info system
info system
info system
info system
info system
info system
info system
info system
info system
info system
info system
info system
info system
info system
info system
info system
info system
info system
info system
info system
info system
info system
info system
info system
info system
info system
info system
info system
info system
info system
info system
info system
info system
info system
info system
info system
info system
info system
info system
info system
info system
info system
info system
info system
info system
info system
info system
info system
info system
info system
info system
info system
info system
info system
info system
info system
info system
info system
info system
info system
info system
info system
info system
info system
info system
info system
info system
info system
info system
info system
info system
info system
info system
info system
info system
info system
info system
info system
info system
info system
info system
info system
info system
info system
info system
info system
info system
info system
info system
info system
info system
info system
info system
info system
info system
info system
info system
info system
info system
info system
info system
info system
info system
info system
info system
info system
info system
info system
info system
info system
info system
info system
info system
info system
info system
info system
info system
info system
info system
info system
info system
info system
info system
info system
info system
info system
info system
info system
info system
info system
info system
info system
info system
info system
info system
info system
info system
info system
info system
info system
info system
info system
info system
info system
info system
info system
info system
info system
info system
info system
info system
info system
info system
info system
info system
info system
info system
info system
info system
info system
info system
info system
info system
info system
info system
info system
info system
info system
info system
info system
info system
info system
info system
info system
info system
info system
info system
info system
info system
info system
info system
info system
info system
info system
info system
info system
info system
info system
info system
info system
info system
info system
info system
info system
info system
info system
info system
info system
info system
info system
info system
info system
info system
info system
info system
info system
info system
info system
info system
info system
info system
info system
info system
info system
info system
info system
info system
info system
info system
info system
info system
info system
info system
info system
info system
info system
info system
info system
info system
info system
info system
info system
info system
info system
info system
info system
info system
info system
info system
info system
info system
info system
info system
info system
Total wall time: 0:00:00
