ITEM: TIMESTEP
0
ITEM: NUMBER OF ATOMS
28
ITEM: BOX BOUNDS xy xz yz pp pp pp
-3.2542741126094454e+00 6.5085482252188926e+00 -3.2542741126094454e+00
0.0000000000000000e+00 5.6365681047956819e+00 0.0000000000000000e+00
0.0000000000000000e+00 4.3350000000000001e+01 0.0000000000000000e+00
ITEM: ATOMS id type x y z fx fy fz
1 1 0 0 20 -0.108067 -0.0987693 0.0567211
2 1 1.85959 2.14726 20 0.111864 0.0946488 0.0538905
3 1 2.32448 0.805224 20 -0.110369 -0.0948863 0.0407909
4 1 3.71917 0.536816 20 0.110053 0.0992324 0.0495333
5 1 2.78938 3.2209 20 -0.110109 -0.0938618 0.0436242
6 1 4.18407 2.95249 20 0.110502 0.098956 0.0535917
7 1 4.64896 1.61045 20 -0.110318 -0.0987497 0.0437827
8 1 -0.464896 1.34204 20 0.10741 0.0985587 0.0487461
9 1 -1.85959 5.36816 20 0.110353 0.100125 0.0521867
10 1 -1.39469 4.02612 20 -0.109285 -0.099607 0.0505436
11 1 -8.88178e-16 3.75771 20 0.111017 0.0944484 0.036207
12 1 0.464896 2.41567 20 -0.112662 -0.0937797 0.0532803
13 1 0.929793 4.83134 20 -0.11134 -0.0994607 0.0572744
14 1 2.32448 4.56294 20 0.11052 0.0933937 0.0509336
15 2 0 0 23.35 -0.0315034 -0.142973 -0.0567211
16 2 1.39469 0.268408 23.35 0.0316492 0.142299 -0.0487461
17 2 1.85959 1.61045 23.35 -0.0248847 -0.144458 -0.0532803
18 2 3.25427 1.87886 23.35 0.026286 0.143368 -0.036207
19 2 4.18407 0.805224 23.35 -0.0316196 -0.144447 -0.0505436
20 2 5.57876 1.07363 23.35 0.0315338 0.145631 -0.0521867
21 2 2.78938 4.29453 23.35 0.0256212 0.14241 -0.0509336
22 2 3.71917 3.2209 23.35 -0.0304656 -0.146153 -0.0572744
23 2 -1.39469 3.4893 23.35 0.0309114 0.144925 -0.0495333
24 2 -0.464896 2.41567 23.35 -0.0269892 -0.143026 -0.0407909
25 2 0.929793 2.68408 23.35 0.0260363 0.144201 -0.0538905
26 2 -0.929793 4.83134 23.35 -0.0303607 -0.144913 -0.0437827
27 2 0.464896 5.09975 23.35 0.0304473 0.145176 -0.0535917
28 2 1.39469 4.02612 23.35 -0.0262321 -0.142288 -0.0436242
