LAMMPS (23 Jun 2022)
units		metal
atom_style	full
atom_modify    sort 0 0.0
box tilt large
read_data theta_21_78/tegt.data
Reading data file ...
  triclinic box = (0 0 0) to (6.5085482 5.6365681 43.35) with tilt (-3.2542741 0 0)
  1 by 1 by 1 MPI processor grid
  reading atoms ...
  28 atoms
Finding 1-2 1-3 1-4 neighbors ...
  special bond factors lj:    0        0        0       
  special bond factors coul:  0        0        0       
     0 = max # of 1-2 neighbors
     0 = max # of 1-3 neighbors
     0 = max # of 1-4 neighbors
     1 = max # of special neighbors
  special bonds CPU = 0.000 seconds
  read_data CPU = 0.001 seconds
group top type 1
14 atoms in group top
mass 1 12.0100
group bottom type 2
14 atoms in group bottom
mass 2 12.0100
velocity	all create 0.0 87287 loop geom
pair_style       hybrid/overlay reg/dep/poly 10.0 0 rebo
pair_coeff       * *   reg/dep/poly  theta_21_78/KC_insp_pz.txt   C C
pair_coeff      * * rebo theta_21_78/CH_pz.rebo C C
Reading rebo potential file theta_21_78/CH_pz.rebo with DATE: 2018-7-3
timestep 0.00025
thermo 1
fix 1 all nve
