LAMMPS (23 Jun 2022)
units		metal
atom_style	full
atom_modify    sort 0 0.0
box tilt large
 read_data theta_21_78/tegt.data
Reading data file ...
  triclinic box = (0 0 0) to (6.5085482 5.6365681 43.35) with tilt (-3.2542741 0 0)
  1 by 1 by 1 MPI processor grid
  reading atoms ...
  28 atoms
Finding 1-2 1-3 1-4 neighbors ...
  special bond factors lj:    0        0        0       
  special bond factors coul:  0        0        0       
     0 = max # of 1-2 neighbors
     0 = max # of 1-3 neighbors
     0 = max # of 1-4 neighbors
     1 = max # of special neighbors
  special bonds CPU = 0.000 seconds
  read_data CPU = 0.002 seconds
group top type 1
14 atoms in group top
mass 1 12.0100
group bottom type 2
14 atoms in group bottom
mass 2 12.0100
velocity	all create 0.0 87287 loop geom
pair_style       hybrid/overlay reg/dep/poly 10.0 0 rebo
pair_coeff       * *   reg/dep/poly  theta_21_78/KC_insp_pz.txt_nkp225   C C
pair_coeff      * * rebo theta_21_78/CH_pz.rebo_nkp225 C C
Reading rebo potential file theta_21_78/CH_pz.rebo_nkp225 with DATE: 2018-7-3
timestep 0.00025
thermo 1
fix 1 all nve
run 0

CITE-CITE-CITE-CITE-CITE-CITE-CITE-CITE-CITE-CITE-CITE-CITE-CITE

Your simulation uses code contributions which should be cited:

- @Article{Ouyang2018
 author = {W. Ouyang, D. Mandelli, M. Urbakh, and O. Hod},
 title = {Nanoserpents: Graphene Nanoribbon Motion on Two-Dimensional Hexagonal Materials},
 journal = {Nano Letters},
 volume =  18,
 pages =   {6009}
 year =    2018,
}

CITE-CITE-CITE-CITE-CITE-CITE-CITE-CITE-CITE-CITE-CITE-CITE-CITE

Neighbor list info ...
  update every 1 steps, delay 10 steps, check yes
  max neighbors/atom: 2000, page size: 100000
  master list distance cutoff = 12
  ghost atom cutoff = 12
  binsize = 6, bins = 2 1 8
  1 neighbor lists, perpetual/occasional/extra = 1 0 0
  (1) pair rebo, perpetual
      attributes: full, newton on, ghost
      pair build: full/bin/ghost
      stencil: full/ghost/bin/3d
      bin: standard
Per MPI rank memory allocation (min/avg/max) = 6.745 | 6.745 | 6.745 Mbytes
   Step          Temp          E_pair         E_mol          TotEng         Press     
         0   0             -3953.7713      0             -3953.7713     -1547980.5    
Loop time of 4.779e-06 on 1 procs for 0 steps with 28 atoms

1569.4% CPU use with 1 MPI tasks x no OpenMP threads

MPI task timing breakdown:
Section |  min time  |  avg time  |  max time  |%varavg| %total
---------------------------------------------------------------
Pair    | 0          | 0          | 0          |   0.0 |  0.00
Bond    | 0          | 0          | 0          |   0.0 |  0.00
Neigh   | 0          | 0          | 0          |   0.0 |  0.00
Comm    | 0          | 0          | 0          |   0.0 |  0.00
Output  | 0          | 0          | 0          |   0.0 |  0.00
Modify  | 0          | 0          | 0          |   0.0 |  0.00
Other   |            | 4.779e-06  |            |       |100.00

Nlocal:             28 ave          28 max          28 min
Histogram: 1 0 0 0 0 0 0 0 0 0
Nghost:            734 ave         734 max         734 min
Histogram: 1 0 0 0 0 0 0 0 0 0
Neighs:              0 ave           0 max           0 min
Histogram: 1 0 0 0 0 0 0 0 0 0
FullNghs:         9134 ave        9134 max        9134 min
Histogram: 1 0 0 0 0 0 0 0 0 0

Total # of neighbors = 9134
Ave neighs/atom = 326.21429
Ave special neighs/atom = 0
Neighbor list builds = 0
Dangerous builds = 0
print "$(pe)"
-3953.7713269808546102
print "$(ke)"
0
info system
info system
info system
info system
info system
info system
info system
info system
info system
info system
info system
info system
info system
info system
info system
info system
info system
info system
info system
info system
info system
info system
info system
info system
info system
info system
info system
info system
info system
info system
info system
info system
info system
info system
info system
info system
info system
info system
info system
info system
info system
info system
info system
info system
info system
info system
info system
info system
info system
info system
info system
info system
info system
info system
info system
info system
Total wall time: 0:00:00
